316
Lattice="15.0267420457 0.0 0.0 0.0 15.0267420457 0.0 0.0 0.0 15.0267420457" Properties=species:S:1:pos:R:3:dlp4_labels:S:1:momenta:R:3:forces:R:3 pbc="T T T"
O        0.67375430      -2.53387104       4.34129955 W       19.30805533    -111.01693331     -44.68001222     835.15517810    2614.86592200    1747.45255900
H        0.31357052      -2.43162630       3.41403817 W       -8.89088442     -25.89097125      -1.46277309    -530.75974470     390.17848210     833.62173410
H        0.09946265      -3.17272249       4.85321548 W        6.87448360       2.64981407      16.52962424    1749.53609500   -1067.04249200    -611.02702240
O       -5.09104252       1.36629167      -1.16758637 W       -5.38607022    -116.85972287     -53.86633239     335.51106790     -87.13122589   -1010.51559900
H       -5.40597308       0.45678501      -1.43890976 W        9.57627505     -13.16423648       3.87316058     793.86820590    -502.32192290    1105.68407300
H       -4.20881659       1.55569392      -1.59863650 W       -1.20615005      -2.15384658      -2.94339031     118.28358560     -90.93654605     165.81684670
O       -5.98974029      -3.70891232       4.93082831 W      -67.64289397      85.97274597      13.04191097    1247.39935600     262.74470410    -635.78633710
H       -6.94173838      -3.54547537       4.67200786 W       -4.05791731      -2.08650276      -5.01026617     282.16644570      -8.84873479    -511.73474360
H       -5.54891014      -4.27832622       4.23697199 W        6.20563710      13.66091541       0.45384560    -169.96641300   -1286.85164600    1208.19780000
O        4.25010294      -1.62964891       2.59770404 W      -64.39420767     -80.29314567     146.53902739     862.37369250   -1536.20741000   -2147.77201700
H        4.00926265      -1.74574199       1.63410747 W      -20.00689009     -15.27922039      14.05936245   -1412.60922500    -746.26078910     565.01787370
H        3.52671562      -1.11931923       3.06275717 W        2.41009523      -2.19369212      16.36199524     544.13702400    -287.74351660     696.61852670
O        4.88518210      -4.16371607       0.54318179 W      -57.31239343     -88.58265737      -6.70550155    3227.79694100    -515.64436650   -1992.39904400
H        5.14061861      -4.49670522      -0.36449129 W       -2.26060585       0.91695698      -2.47877167     669.73788310     168.20788780     -21.67244601
H        5.00063104      -4.89803310       1.21209885 W        0.57378452      -8.82664090      -4.64006464    -759.88735720    -298.37039130    -333.62161770
O        2.44107487      -0.23638671       3.92409101 W       36.09731226      89.00719470     -33.74183360   -3470.31191600    -217.40639680    3852.86178800
H        2.01243993      -1.11501113       4.13454584 W       -6.56558317      14.54899611      20.29358153     517.03144050     397.58011610     427.89090650
H        1.73575082       0.42706410       3.67438914 W        6.70777566      11.38208231       0.45746522      37.17604627    -563.32475910   -1570.83420800
O       -3.69494134       6.19623417       1.49995761 W      -14.39025091      49.00961335      30.02295122    -621.92325710    2131.69177800     734.79936240
H       -3.58301505       6.41998953       2.46815494 W        9.07773669       9.69848850      -0.63789624   -1433.65767800   -1192.43108900     261.49711940
H       -4.39140499       6.79126574       1.09886433 W       -5.14667126       0.25698500       4.96728503    1210.93638900    1306.87281600    -190.92559600
O       -6.79800192      -5.87949028      -2.68492712 W      156.36875898    -106.96799837     -84.78693975      58.78408863   -2054.66794700    1332.17487500
H       -7.16838776      -5.25000150      -2.00187645 W        4.55099883      -4.50321463     -10.19537160    1820.90608100     853.22380080      29.83633762
H       -6.33485922      -6.63644327      -2.22392709 W        9.08121549      -3.61691417       0.65849312    1382.94853400     705.74674170     -34.33363176
O        5.27714188      -6.03368404       6.28115104 W     -133.84649839     -90.19073669     -42.31871731    2820.43379900   -2289.28438600      97.10327047
H        5.90329988      -6.05595046       5.50177284 W       -2.80166119      -6.58321998       1.81706744    -129.24529100    -892.00650420    -142.19171500
H        4.33858679      -5.93106203       5.95163160 W       -5.79800235      -2.57414161      -9.38783734     370.98641800    2340.96737700     376.58663660
O        6.25489309      -3.43354894      -4.33812346 W       42.73207879      -4.67312422      34.95880747    2849.06621900      67.82604011   -2050.22951000
H        6.45307691      -2.52379783      -3.97332747 W      -27.01682853      16.99663892     -20.22590050    1147.72754300   -1755.41682300   -1159.81047000
H        6.44087377      -3.44630577      -5.32059406 W      -22.00738840      -9.18819724      -3.07715100     -98.88985679   -3298.96933200     460.16060320
O        5.44983445       5.22424416      -2.32034921 W       25.63719382     -66.42637345     -19.55502639     901.13187170   -3846.55439400    1656.59618400
H        4.84462723       4.63173267      -1.78869673 W       -0.10622622       6.75134404       9.43499719    -187.33103260     899.26888140     809.44930140
H        6.34300915       5.27512413      -1.87352689 W        7.91369442     -13.34643656     -12.23907112    -742.15713830     766.33865270     846.80749700
O       -6.14249040       4.76403253      -3.36716862 W       51.58538987     -54.20171656      34.07764363   -4174.17785100   -2824.49976200     334.06252140
H       -6.87249893       4.38788139      -3.93778046 W       -1.77691955      27.00929325     -13.54602855    1921.16954300   -1674.18549700     744.30811810
H       -5.38846543       4.10916060      -3.31628517 W      -15.90289641     -26.92058042       1.27763444     638.12296380    2667.36502800   -1045.54475200
O        3.99996541      -0.22082822       6.67463922 W      -63.06928914     100.33186666      18.92424879   -1987.36855800    2283.53109000   -2354.11615100
H        3.83771633       0.51058944       7.33698615 W      -13.48198319       8.70144042      -3.58819657     226.09394680     522.59807440    -656.38942180
H        3.39079362      -0.10147446       5.89063385 W       25.40776677      19.64468696     -21.56900312     977.10379650    -392.06326110     834.80484210
O       -5.15293894       3.13472259      -6.92299620 W       39.64337973      21.57404427    -140.82185594    1833.25471200   -4824.97374700     840.68565190
H       -5.35944302       2.68499991       7.23477773 W        4.96764125      20.11669430     -19.70623530   -1140.70880800    1091.70912200      64.36899448
H       -5.92010222       3.01144676      -6.29350150 W      -11.03328632       9.34747442     -23.09464789     626.83749990    1389.87964700     323.37523830
O       -1.49180874      -2.75808079       7.47546060 W     -172.84373675      73.60659722     -62.20701145   -3162.07902400   -1373.13051300     717.63746510
H       -1.48213009      -2.97710477      -6.57560997 W       -4.83162076      20.78084415      -0.03980644    1348.82982000    -282.40922830    -310.74121410
H       -1.11022710      -3.52416411       6.95824516 W      -19.44132757      -6.45108441       5.64759157    -951.35476050     277.26515780    -486.00946040
O        3.35340468       3.97081832       2.23650437 W        7.47216204      45.93564779     -39.37771581    -936.64189050     659.21569310   -2004.40788500
H        3.83865878       3.24697092       2.72698719 W        5.20371748      -2.40202054     -14.58358730   -1923.33492200    -684.20087650     174.30598420
H        3.62232729       4.86082994       2.60468906 W        9.52000642      -0.60857226      -0.35927790   -1152.68910900    -537.27286150    1743.59692500
O       -0.04592792       5.60653706       7.26686120 W       -3.03898285     -14.28716706      40.58053263      76.60411628    1327.32392000    2996.24697800
H        0.61073482       5.14233580      -7.16548094 W      -13.82551293       2.97603964      21.57952115      -0.61799353     434.91355080    -532.91219260
H       -0.69749741       4.93961879       6.90536815 W       -6.05605842      -0.14839231      11.43030182     433.75764880     558.54993260   -1009.34764400
O       -6.86819686       4.84004976      -0.66598869 W      -44.85450567     -72.26552151      26.29777889    -415.06734960     591.47897720   -2789.49523000
H       -6.66983077       3.94237548      -0.27250197 W       -0.76193908      -5.81075361      -2.20108097     178.82403670     505.00137760     698.62466110
H       -6.78549340       4.79309606      -1.66145616 W      -15.53107333      -3.33549487       0.38095206    2220.06565900    -272.12745260     314.46810580
O       -2.80988839       4.33302467       7.49368223 W       88.52279173     -97.26546142     -70.37114308    4121.41593700   -2471.61193700    1332.76827400
H       -2.18983443       4.55042686      -6.77922338 W      -10.34520051       6.85707445       5.60204041   -1706.51551600      64.55740224    1185.55106100
H       -3.62873481       3.88627867      -7.17263151 W        1.41935610      -7.47302354     -15.17887843   -1652.78627900    2455.58176100   -1246.74743900
O        0.80145292       1.65470291       7.25293295 W       33.76802943      30.47717227     -72.61484871   -2754.14537800   -2062.74633700    -101.92612000
H        0.74485904       0.66136713       7.15252794 W       -9.73731738       2.98762289     -10.14607662     824.30422240      47.87851317    -216.52624980
H        1.72879162       1.95923640       7.03544203 W       10.14731559      -9.32690010      11.79220311    -187.85312740     332.49551620    2125.65599800
O        2.96277702       1.11203631      -1.95309246 W      -46.13539340    -109.73301907      -8.27605580    2117.66982100   -2299.19342300   -4183.09745200
H        3.01271149       1.10292912      -0.95438148 W        6.92327542     -13.74593761      -0.93357791   -2708.03332900   -1761.47253100    -360.99184380
H        3.28790197       0.23667301      -2.31090927 W        5.37051559      -0.14341363     -10.13265262     526.45820190     472.22244540   -1004.24796900
O        6.63484964      -3.74530829      -7.46218658 W      138.18751058     -97.51485808      19.37976995   -2462.16698900    1365.37839200     868.95287230
H        5.82668102      -3.16894133       7.44345784 W       28.05895117      21.04960142      -8.31433324     195.06744280   -1534.92869700    1340.57508400
H        6.38163010      -4.70462171       7.43966500 W      -21.85562801       1.09473349      -0.21796315    1193.20477300    1024.20738700   -1122.62266500
O        6.38168082      -3.10546984       4.22738645 W       -1.59547371      47.07850226      66.86777847    -488.46591900    1230.16450000    1213.02282000
H        6.29084303      -3.31620995       5.20069890 W       -0.49960821      12.85447285       6.42083859    -656.92588850    -566.57020150    -253.86587500
H        5.47628533      -3.09460592       3.80295625 W        1.11494245     -16.35811389       0.21753519     484.77512810     123.39662240    -133.35237960
O       -4.57567354      -3.44195678       7.37836231 W      -35.01215807      19.98858406     -78.48315174    2877.98442900     193.13588800   -1433.94848200
H       -3.62465751      -3.20450042       7.18041535 W       -3.22040131      14.49443528       4.71557624      92.96735300    -938.41301210     -73.37264957
H       -5.05290526      -3.64613870       6.52363449 W        6.79379643       4.21086916     -10.81800573     177.82113860    -595.40806910     215.13727950
O       -1.67317520       7.48411213      -6.06487083 W       37.95967028      -9.68465834     -20.78234067   -2021.35195300   -3139.61175500   -2515.11230400
H       -1.16107118       6.82750156      -6.61859643 W        9.58702007      -8.60144127      14.18778680    1328.65890900     679.09256270     670.35662380
H       -1.48696820       7.31982080      -5.09619373 W      -19.55972852       4.72322294       4.36703266     547.33393720    1953.89080200    -496.87140170
O        5.46543699      -5.14720133      -2.37970945 W      -54.16453652       3.47001093      42.77292201     100.33354340   -2526.22031000    2221.49578600
H        6.03061452      -5.94133876      -2.15628134 W       18.15751313      23.24100182      40.73955062   -1137.90375600    1821.89497800    -935.98417770
H        5.82624334      -4.70138584      -3.19889644 W        7.99703051      -8.27743265       2.85288811     170.06707450    1848.94727900    1629.60401700
O       -7.43478979       2.35691339      -4.66655767 W        3.76537111      48.65304162     104.51318134    -485.87642580    1822.37220300   -3470.97766300
H       -7.17301773       1.56926039      -5.22430147 W      -23.10828931      -0.65287608      -0.19033910    1083.73795700    -256.37645000    2194.36720600
H        6.88077446       2.08458085      -4.01843644 W        1.40329320      15.66589714      13.47465192    -285.48062480     896.18201930    -431.84590100
O       -2.21984245      -6.32926266       4.10282859 W      -15.97223256      75.49959858     -97.57189197   -2757.12628300    2149.52636000    -534.27787250
H       -2.17355411      -5.42161383       3.68565838 W        7.90415072       9.81940798       5.29837462    -474.79569660    -666.83303770   -1076.76494800
H       -1.66350698      -6.96862596       3.57206930 W        5.45923209       9.72698395      -5.48188363    1348.31742500     -99.14641021    1913.27764900
O        7.22636464      -6.55122386       3.81908248 W      139.65878030     -46.59109011      37.58964730     247.61758220     344.89472090    1671.57371400
H       -6.82893541      -6.34884123       3.94294429 W        5.82928342      14.29306200      -0.01233385    -295.23983300     -99.48118270     252.72523760
H        6.97700952      -6.41376046       2.86047628 W        1.24469071       6.48372717       5.52387421     104.86141350   -2432.58798600      -1.70259551
O        2.23204942      -6.76724211      -3.72227372 W       79.97601215      26.84711950      86.35921458    2739.01321500     989.04824070     850.93384280
H        2.78329116      -6.26130438      -4.38571894 W      -11.55981511     -18.97270983     -26.68660224   -3587.74880600    1198.46266700     168.87474790
H        2.53931824       7.30842099      -3.69010647 W      -21.59483857      -8.33912158      -7.08578147   -1599.98554500      47.85240610   -2947.35093600
O        3.62948328      -1.83372491      -0.10358773 W     -124.28294183     -71.38392487      29.50688049    2195.66306300    -592.76100390    1932.92335800
H        3.51896277      -1.72629498      -1.09163836 W       -5.90141010      -7.36317479       1.31950466     304.16268260     276.30958870     150.81070030
H        4.10304434      -2.69359008       0.08712625 W       -1.02946982      -0.16578676       4.88543910    -700.01526060    -409.28407030     -24.19910612
O       -0.44238587      -1.88185923       1.92800741 W      -73.88338195    -112.62834171      -2.60664246     304.18752360   -2180.88212200   -3255.07886700
H       -0.25014917      -1.30086256       1.13712947 W        0.22047699       0.67185660       6.56597533     757.81740580   -1018.86109700    -484.49423840
H       -0.71292147      -2.79217727       1.61474783 W       13.71338113      -9.42510276     -10.68659745    -420.76185460     244.68372220     713.78453590
O       -0.26282124       5.95063494      -1.57879422 W      -81.78366867      49.57941137     -43.89640339    1951.60116500    6454.86912300     166.18383870
H       -0.62433654       6.64135306      -2.20506507 W       -3.59471863      27.77592088      21.62690404    1964.95855100     -30.96203297     342.73672360
H        0.67306649       6.19136757      -1.32157452 W        7.04790619     -25.31868166     -16.17725602     828.07614970   -2051.60033400   -2872.60359600
O        6.94306185      -0.23156105      -0.29521654 W      -69.85680440       2.28428035     -58.41094854   -1058.16067600    -793.37218660    -352.34833790
H       -7.37320828      -0.52329992      -0.93562118 W       -7.98974969      10.88028831     -12.87980754     710.41971040      19.92098626    1219.21891800
H        6.19116130       0.19069051      -0.80152592 W       -1.27840800      21.48590882       8.29584904    1121.67905000     174.59289840    -453.19452280
O       -1.94808433       2.54299689       3.26961180 W      100.54650286      14.48034500      64.21155531    2871.00685100   -2594.15938900    1963.18216900
H       -1.72536534       2.53563202       4.24446667 W      -11.10519153     -22.15921238       8.72374975   -1621.20595800     256.62105150    -242.63158630
H       -2.87589562       2.89371975       3.14249101 W        8.16256329       2.94482056      -4.28271645     689.38253520     458.74333620   -1794.63015300
O        3.66464248      -3.19003442      -4.97856334 W       20.33833597      26.21851367      32.22223621   -3683.80348100     404.07920530   -1218.22308600
H        4.40399726      -3.66656562      -4.50288222 W       -1.35398437      -6.67344879      -2.02180097     887.29596440    1371.15544200    -762.42847730
H        3.88272686      -3.12455068      -5.95229385 W       -0.36392370       4.96257032       1.87041061   -1308.34019100      70.89480912    -306.33518180
O        4.17751647       6.14646544       3.55215523 W      -31.94879701      48.56899662      74.51012364   -4448.73971400    1029.21676000   -1483.60360700
H        4.09679344       6.68323272       4.39201515 W       -4.48074586      14.81481950      -2.81979314   -2641.39105100     970.20747610   -1037.37980900
H        4.98032955       5.55322496       3.61179501 W       -6.01181391      -1.36720799      18.00147640    1328.28615500    2773.16555400    1673.86361600
O       -0.72894472      -6.46036860      -3.15019401 W       45.00032159      89.89766992      89.36310706    2223.41486700   -4312.71461400     -37.77266150
H       -0.71066641      -5.99420457      -2.26568453 W        0.56879588       7.12887670       4.91366797    -475.58063780     737.01599740    -518.02727370
H        0.20703989      -6.65449897      -3.44387108 W        3.63314241       6.14493453       7.83614994     448.64084590    2433.35828000    -728.72743720
O       -6.44241862       6.37973881       6.37452766 W      -55.96626727      35.04422514       7.49282713    2239.12606700   -1004.36245000     953.17646550
H       -7.38283449       6.67847628       6.53692813 W       -5.43896103       2.87019432     -10.99930203     334.11930250     689.07027750    -786.88196470
H       -6.43474769       5.40155550       6.16692568 W        0.31553470      -1.45532283      16.51803958    -613.01490390      39.52514460     746.57850660
O        0.59482568      -1.12826740       6.94270715 W      -20.76876830      48.58881850      18.14096118     458.99313800    3958.17676200   -3323.13491900
H        0.95275863      -1.48899233       6.08145136 W       -4.47225876       5.69490520      -1.30117203    -767.94130070    -915.20480210     -16.76660394
H       -0.24088355      -1.61961318       7.18800168 W       12.37018824     -14.51419165      15.34481669    1431.70023100    -194.44440580    1761.93307100
O        6.55624822       5.41562603       4.11716078 W       72.95027154      60.22778778     -46.39109338    6974.44054700     -94.59460327   -1493.42352600
H        6.78048156       6.38964544       4.08544933 W        9.31503010       2.48767950     -23.10092323    1029.69965300    -561.69188100     -33.56089330
H        7.28445496       4.89156773       3.67548459 W       -8.21701935      -6.65232035     -12.46624829     592.63639390   -1180.19246700    2526.58304400
O       -0.36506505       1.32725025      -5.20627244 W     -105.00783886     -51.31669758     -22.06802679   -2760.82857000    2880.78772600   -1414.98730700
H       -1.28640883       1.00341164      -5.42134035 W        2.76264306     -26.77273665      -9.35732696    1047.83208100   -1863.20350100     -97.81020645
H        0.10954701       1.56796526      -6.05291267 W        1.30575382     -11.52099436       0.53660862    1129.28181500   -2888.60643600    -215.15211750
O       -3.69552167       1.27801548      -5.03546781 W      -29.83512951     -18.75282050      36.71922527    2981.41384300   11245.08737000    3224.65266400
H       -3.80167048       1.95062916      -5.76780878 W       36.22849070     -11.88095190     -15.57700440   -2072.21579300   -1158.11469300    1862.63251200
H       -3.52834413       0.37592237      -5.43331163 W       -3.60738425     -12.20172757      24.99242239   -2466.95318900     605.10135560     727.26261760
O       -0.72775564       4.02142699      -4.88478403 W      -44.47196564      -5.35532427      73.54315133   -3226.67175500    1239.57812100    1205.14052800
H       -0.69892464       3.04419943      -5.09501029 W        9.47008689       0.87527687      -0.14064824     -31.93802155    -158.77399980    2203.10399800
H        0.20492568       4.36951457      -4.79022932 W       -6.25413276      14.50006678     -10.97556810    -590.47401590    1098.30796000   -2520.17507400
O        1.91161411       4.28797160      -5.84595019 W       11.00276455    -107.47097954     -83.24991782    -630.99611000     388.22164170    2581.35965900
H        2.33233113       3.40464823      -6.05267952 W       14.62262644       3.79697405     -25.45968482    1064.77428900    1566.68273900   -2283.25257700
H        2.54533230       4.84017302      -5.30421700 W        2.71086732      -0.14922294     -14.12444808     -89.17442529     824.28442620    -732.71013080
O       -3.49264518      -1.23439783       1.02750245 W        6.59078053      59.79397467     158.98466082    1104.73422400     332.78548970   -1923.03361200
H       -2.99895011      -0.92378082       1.83977226 W      -26.69874173       6.80631221      26.57043237   -1940.20685600     240.54155580      74.15436786
H       -3.44268516      -0.53133187       0.31813495 W       21.67040506       2.51880195       9.64601909    -368.10338950     807.28164580    1316.12550000
O       -0.57877953      -4.73717482       5.78283390 W       30.33666667      -4.37175317     177.39901907   -1287.81136700    -354.54598240    -319.87735280
H       -1.39040165      -5.18347241       5.40588827 W      -18.92557884      12.18247736      37.88476694    1129.42773300     505.21659970     233.62690680
H        0.06781413      -5.43217686       6.09729983 W       -5.79783108     -10.75871407       4.52847182     -64.96672775     380.95888450     114.19671650
O       -5.15804761      -0.52897267       4.07561388 W       21.59440793     -87.84730158     -17.92923713   -3249.58735900    -242.47119670    -727.05913870
H       -4.16983603      -0.37662359       4.09070136 W       -1.51037226      16.02455554       0.24683099    -602.94695120    -798.12221280   -1375.21608200
H       -5.47677116      -0.73983384       4.99970958 W        4.82835925     -15.33208120      -2.05297190    1319.48580100   -1917.50275400      20.17316981
O        0.53659961      -1.09557141      -0.63368728 W      -10.59162104     -84.75210009     -20.24676749     532.82750240    3955.42828300    2260.58412200
H        1.26703964      -0.55875566      -0.21144775 W       -1.23811893      -0.54228672      -6.27456050     236.52616200     426.61541090    -514.22059320
H        0.36131634      -0.75197258      -1.55630075 W       -8.05020786      -7.57419717      -0.76900156   -1176.13939500     468.70167710     483.15114270
O        4.16769168      -1.37461836      -2.77783771 W       37.51086219       8.88271305       5.89604807    -591.54659760     516.10002280    -554.09573350
H        3.79475560      -1.76436657      -3.61986801 W       -1.69875397      18.80605385      -6.74349552    -509.86785750    -544.43983630     979.90290060
H        5.01137568      -1.85308541      -2.53439040 W      -12.42297704     -25.74866672       3.64021112    -713.31538220     262.91454130    -898.54570340
O        7.23605915      -7.08885116       1.03348483 W       14.14919248      83.18788498      80.68986615   -2121.87628700   -1118.35440700   -3319.10906200
H        7.34605848      -6.27221902       0.46690554 W        1.27461923       7.41281172       8.26220582    2714.12331200     844.91433960    1670.37059400
H       -7.26969278       7.18315636       0.63480564 W       10.64218738       9.85767273       8.76515480     649.92360600     283.89228150     354.80310020
O        4.57468769      -7.38327607       1.16322947 W      -32.68705560      19.34629203      34.84101718   -1943.20067800   -3362.76090800   -3212.77714700
H        4.43286071       7.00217969       1.91730971 W       -5.16681182       4.73606062       4.63836229   -1028.41969600    2407.05907500    1875.93888000
H        5.55279244      -7.30844306       0.96903594 W       -0.17001646       9.17521064      13.75911605     248.59357170     918.79250700    2381.32549600
O       -3.54053972       0.28647448       6.32205339 W       38.89194216      19.72022357      55.89642589     397.30052530    1399.03665600    -400.57292180
H       -4.40817396       0.72854084       6.09448327 W        9.84194471      17.98051435       6.36941999     407.34088480     708.68582260     921.32560150
H       -2.78907876       0.92764858       6.16648276 W       17.26364858     -20.32429612     -22.41083579    -387.94470660   -1386.19229800    -679.55953640
O       -0.93201196      -5.38416078      -0.75882293 W       73.27982465      -8.86536496     -41.25777424   -1782.30944400     656.46362220    3896.76883300
H       -1.90516333      -5.23178371      -0.58631884 W       -0.50345832     -24.24215817      -7.09376367     917.51536920    1870.97920200    -105.66038380
H       -0.41662538      -4.56539320      -0.50584797 W      -17.51266066      17.37876162     -12.05869636     575.49890590    -538.88164090   -2764.20912100
O        4.54249870       1.77544814       3.67749057 W       44.93519136      85.05953118       0.90706046   -1289.68742400    1000.32828300    1290.20196200
H        4.91628073       2.09576209       4.54794217 W       -0.38060073       7.91277147       0.51587445     -23.51634559     -39.23895843      72.53589129
H        3.82708987       1.09863442       3.85102269 W       11.60502740      -4.43296610      -0.97417813     451.20449840    -300.05140840      69.18135715
O       -3.49472647      -0.87415084      -6.20592739 W      -22.85368869      60.32807323     -25.08746437    1310.14653700  -10658.67152000   -4201.29171500
H       -3.07470655      -0.68794385      -7.09413358 W        4.06080570      -6.89199099      -1.38166141   -2014.24394200    -419.67866040    -969.85516090
H       -3.83652841      -1.81377871      -6.18946767 W      -17.68089866       9.44211135       1.45163572     518.90721710    -483.23752440      35.39495942
O       -5.00822149      -5.79165512       3.32820153 W      -29.67297720      -7.52590932     -69.98011912   -1024.34015500    2337.54553300     491.10641360
H       -4.84761180      -5.86664111       2.34403608 W       -9.02612926     -17.27382434      -4.63101301    -525.92963110     326.61886000     269.75110720
H       -4.19233219      -6.09132937       3.82269118 W        1.75563879       8.04303586      -5.05706223      -9.08963702    -414.78210920    -604.66610760
O       -6.44463416       0.09682068      -5.87777300 W      104.78191523      42.00293256    -100.61595532    -529.56247130     903.28982450     267.81953190
H       -5.44603932       0.09090967      -5.82510962 W        6.44295685       1.53352967      -3.25252999    -112.59862110     481.10926400    1602.41194800
H       -6.73744819      -0.38227871      -6.70525335 W        8.28554246      -8.05640014      -0.91325292    1416.56253400    -795.03090540     118.04039500
O        5.50565921       1.71269810      -2.95741659 W       55.75616913      -8.75861744     -53.62132105    2404.18975700    1241.35492000    -448.19155880
H        4.50888188       1.69436509      -2.87932137 W        3.94440677      -6.68453607       1.46317169     263.91116140   -1505.00422000     927.87054140
H        5.86984336       2.45872278      -2.39990687 W        0.56381059      13.88934654     -19.90881425    -618.71727720    -405.48246530     204.46851170
O        2.72595734       7.12411901      -0.92940777 W      -23.91277473      74.99684437      79.16404095    -118.29667240    -871.27195840     993.93602530
H        3.50663354       7.28063013      -0.32438798 W        5.91683268       3.64866315      -4.08671324    -471.37366190     239.47629540     321.73487200
H        3.02660946       7.17701717      -1.88167354 W      -13.73402937      10.31914918       1.23615482     389.00665280     -74.67856917     410.98591350
O        3.79295355       3.59932888      -0.62776598 W      -43.43338908      86.01254614      50.39034825    2581.42967800    3285.72593600    -832.72191940
H        3.52679866       4.24179633       0.09084181 W       -2.04822865      -5.85669750      13.84199245    -204.18237570   -1734.30938500    1407.96483800
H        3.02598393       2.99081167      -0.83139411 W       -1.39540143       5.53780040      -2.38971611     565.96704770     164.55606110   -1437.00627100
O        0.52612670       4.49147234       1.63956775 W     -122.27075667      14.22697636      47.08781249    2080.78328300    1000.27539300   -2182.23213800
H        1.48584536       4.45581965       1.91825932 W       -6.42158800      -1.61492654      -1.66513092    -186.00358770   -1897.48172400     583.81471200
H        0.36112892       3.81127976       0.92534525 W       -6.89720047      18.22318744     -14.56019352   -1305.84684300     455.57218220     704.38248490
O        6.90199948       4.02167482      -6.95448756 W      -78.99531717     -25.82852462      39.55426698     917.06511800    2344.73955200    1786.29363000